#(C) 2011 by Fachinformationszentrum Karlsruhe. All rights reserved.
data_653525-ICSD
_database_code_ICSD 653525
_audit_creation_date 2008-07-07
_audit_update_record 2009-08-01
_chemical_name_systematic Zirconium
_chemical_formula_structural Zr
_chemical_formula_sum Zr1
_chemical_name_structure_type Mg
_exptl_crystal_density_diffrn 6.51
_cell_measurement_temperature 293.
#Default value included by FIZ Karlsruhe
_cell_measurement_pressure 101.325
#Default value included by FIZ Karlsruhe
_publ_section_title 'Zirconium: phases and compressibility to 120 kilobars'
loop_
_citation_id
_citation_journal_full
_citation_year
_citation_journal_volume
_citation_page_first
_citation_page_last
_citation_journal_id_ASTM
primary 'High Temperatures-High Pressures' 1973 5 123 131 HTHPAK
loop_
_publ_author_name
'Olinger, B.'
'Jamieson, J.C.'
_cell_length_a 3.2296
_cell_length_b 3.2296
_cell_length_c 5.1461
_cell_angle_alpha 90.
_cell_angle_beta 90.
_cell_angle_gamma 120.
_cell_volume 46.484
_cell_formula_units_Z 2
_symmetry_space_group_name_H-M 'P 63/m m c'
_symmetry_Int_Tables_number 194
loop_
_symmetry_equiv_pos_site_id
_symmetry_equiv_pos_as_xyz
1 'x, x-y, -z+1/2'
2 '-x+y, y, -z+1/2'
3 '-y, -x, -z+1/2'
4 '-x+y, -x, -z+1/2'
5 '-y, x-y, -z+1/2'
6 'x, y, -z+1/2'
7 '-x, -x+y, z+1/2'
8 'x-y, -y, z+1/2'
9 'y, x, z+1/2'
10 'x-y, x, z+1/2'
11 'y, -x+y, z+1/2'
12 '-x, -y, z+1/2'
13 '-x, -x+y, -z'
14 'x-y, -y, -z'
15 'y, x, -z'
16 'x-y, x, -z'
17 'y, -x+y, -z'
18 '-x, -y, -z'
19 'x, x-y, z'
20 '-x+y, y, z'
21 '-y, -x, z'
22 '-x+y, -x, z'
23 '-y, x-y, z'
24 'x, y, z'
loop_
_atom_type_symbol
_atom_type_oxidation_number
Zr 0
loop_
_atom_site_label
_atom_site_type_symbol
_atom_site_symmetry_multiplicity
_atom_site_Wyckoff_symbol
_atom_site_fract_x
_atom_site_fract_y
_atom_site_fract_z
_atom_site_B_iso_or_equiv
_atom_site_occupancy
_atom_site_attached_hydrogens
Zr Zr 2 c 0.3333 0.6667 0.25 . 1 0
#End of data_653525-ICSD
